# vtk DataFile Version 3.0
flash 3d grid and solution
ASCII
DATASET RECTILINEAR_GRID
DIMENSIONS 17 9 9
X_COORDINATES 17 float
-0.0625 -0.0546875 -0.046875 -0.0390625 -0.03125 -0.0234375 -0.015625 -0.0078125 0 0.0078125 0.015625 0.0234375 0.03125 0.0390625 0.046875 0.0546875 0.0625 
Y_COORDINATES 9 float
-0.0125 -0.009375 -0.00625 -0.003125 0 0.003125 0.00625 0.009375 0.0125 
Z_COORDINATES 9 float
-0.0125 -0.009375 -0.00625 -0.003125 0 0.003125 0.00625 0.009375 0.0125 
CELL_DATA 1024
FIELD FieldData 2
p 1 1024 float
59.7867 50.752 47.1332 43.6819 40.3112 36.9511 33.5917 30.2326 26.8734 23.5142 20.155 16.7959 13.4367 10.0775 6.71834 3.35918 58.3298 50.5638 47.1272 43.6804 40.3112 36.9512 33.5918 30.2326 26.8734 23.5142 20.155 16.7959 13.4367 10.0775 6.71834 3.35918 57.4015 50.4051 47.1024 43.6739 40.3101 36.9511 33.5917 30.2326 26.8734 23.5142 20.155 16.7959 13.4367 10.0775 6.71834 3.35918 56.9934 50.3282 47.0844 43.6693 40.3093 36.9509 33.5917 30.2326 26.8734 23.5142 20.1551 16.7959 13.4367 10.0775 6.71834 3.35918 56.9934 50.3282 47.0844 43.6693 40.3093 36.9509 33.5917 30.2326 26.8734 23.5142 20.1551 16.7959 13.4367 10.0775 6.71834 3.35918 57.4015 50.4051 47.1024 43.6739 40.3101 36.9511 33.5917 30.2326 26.8734 23.5142 20.155 16.7959 13.4367 10.0775 6.71834 3.35918 58.3298 50.5638 47.1272 43.6804 40.3112 36.9512 33.5918 30.2326 26.8734 23.5142 20.155 16.7959 13.4367 10.0775 6.71834 3.35918 59.7867 50.752 47.1332 43.6819 40.3112 36.9511 33.5917 30.2326 26.8734 23.5142 20.155 16.7959 13.4367 10.0775 6.71834 3.35918 58.3298 50.5638 47.1272 43.6804 40.3112 36.9512 33.5918 30.2326 26.8734 23.5142 20.155 16.7959 13.4367 10.0775 6.71834 3.35918 56.9687 50.454 47.1426 43.6844 40.3127 36.9516 33.5919 30.2326 26.8734 23.5142 20.155 16.7959 13.4367 10.0775 6.71834 3.35918 56.0917 50.3509 47.1313 43.6813 40.3125 36.9517 33.5919 30.2326 26.8734 23.5142 20.1551 16.7959 13.4367 10.0775 6.71834 3.35918 55.705 50.3001 47.1195 43.6784 40.3121 36.9517 33.5919 30.2327 26.8734 23.5142 20.1551 16.7959 13.4367 10.0775 6.71834 3.35918 55.705 50.3001 47.1195 43.6784 40.3121 36.9517 33.5919 30.2327 26.8734 23.5142 20.1551 16.7959 13.4367 10.0775 6.71834 3.35918 56.0917 50.3509 47.1313 43.6813 40.3125 36.9517 33.5919 30.2326 26.8734 23.5142 20.1551 16.7959 13.4367 10.0775 6.71834 3.35918 56.9687 50.454 47.1426 43.6844 40.3127 36.9516 33.5919 30.2326 26.8734 23.5142 20.155 16.7959 13.4367 10.0775 6.71834 3.35918 58.3298 50.5638 47.1272 43.6804 40.3112 36.9512 33.5918 30.2326 26.8734 23.5142 20.155 16.7959 13.4367 10.0775 6.71834 3.35918 57.4015 50.4051 47.1024 43.6739 40.3101 36.9511 33.5917 30.2326 26.8734 23.5142 20.155 16.7959 13.4367 10.0775 6.71834 3.35918 56.0917 50.3509 47.1313 43.6813 40.3125 36.9517 33.5919 30.2326 26.8734 23.5142 20.1551 16.7959 13.4367 10.0775 6.71834 3.35918 55.2399 50.2915 47.1298 43.6806 40.3129 36.9519 33.5919 30.2327 26.8734 23.5142 20.1551 16.7959 13.4367 10.0775 6.71834 3.35918 54.8621 50.2632 47.1238 43.6792 40.3129 36.952 33.592 30.2327 26.8734 23.5142 20.1551 16.7959 13.4367 10.0775 6.71834 3.35918 54.8621 50.2632 47.1238 43.6792 40.3129 36.952 33.592 30.2327 26.8734 23.5142 20.1551 16.7959 13.4367 10.0775 6.71834 3.35918 55.2399 50.2915 47.1298 43.6806 40.3129 36.9519 33.5919 30.2327 26.8734 23.5142 20.1551 16.7959 13.4367 10.0775 6.71834 3.35918 56.0917 50.3509 47.1313 43.6813 40.3125 36.9517 33.5919 30.2326 26.8734 23.5142 20.1551 16.7959 13.4367 10.0775 6.71834 3.35918 57.4015 50.4051 47.1024 43.6739 40.3101 36.9511 33.5917 30.2326 26.8734 23.5142 20.1551 16.7959 13.4367 10.0775 6.71834 3.35918 56.9934 50.3282 47.0844 43.6693 40.3093 36.9509 33.5917 30.2326 26.8734 23.5142 20.1551 16.7959 13.4367 10.0775 6.71834 3.35918 55.705 50.3001 47.1195 43.6784 40.3121 36.9517 33.5919 30.2327 26.8734 23.5142 20.1551 16.7959 13.4367 10.0775 6.71834 3.35918 54.8621 50.2632 47.1238 43.6792 40.3129 36.952 33.592 30.2327 26.8734 23.5142 20.1551 16.7959 13.4367 10.0775 6.71834 3.35918 54.487 50.2471 47.1215 43.6788 40.3132 36.9522 33.592 30.2327 26.8734 23.5142 20.1551 16.7959 13.4367 10.0775 6.71835 3.35918 54.487 50.2471 47.1215 43.6788 40.3132 36.9522 33.592 30.2327 26.8734 23.5142 20.1551 16.7959 13.4367 10.0775 6.71835 3.35918 54.8621 50.2632 47.1238 43.6792 40.3129 36.952 33.592 30.2327 26.8734 23.5142 20.1551 16.7959 13.4367 10.0775 6.71834 3.35918 55.705 50.3001 47.1195 43.6784 40.3121 36.9517 33.5919 30.2327 26.8734 23.5142 20.1551 16.7959 13.4367 10.0775 6.71834 3.35918 56.9934 50.3282 47.0844 43.6693 40.3093 36.9509 33.5917 30.2326 26.8734 23.5142 20.1551 16.7959 13.4367 10.0775 6.71834 3.35918 56.9934 50.3282 47.0844 43.6693 40.3093 36.9509 33.5917 30.2326 26.8734 23.5142 20.1551 16.7959 13.4367 10.0775 6.71834 3.35918 55.705 50.3001 47.1195 43.6784 40.3121 36.9517 33.5919 30.2327 26.8734 23.5142 20.1551 16.7959 13.4367 10.0775 6.71834 3.35918 54.8621 50.2632 47.1238 43.6792 40.3129 36.952 33.592 30.2327 26.8734 23.5142 20.1551 16.7959 13.4367 10.0775 6.71834 3.35918 54.487 50.2471 47.1215 43.6788 40.3132 36.9522 33.592 30.2327 26.8734 23.5142 20.1551 16.7959 13.4367 10.0775 6.71835 3.35918 54.487 50.2471 47.1215 43.6788 40.3132 36.9522 33.592 30.2327 26.8734 23.5142 20.1551 16.7959 13.4367 10.0775 6.71835 3.35918 54.8621 50.2632 47.1238 43.6792 40.3129 36.952 33.592 30.2327 26.8734 23.5142 20.1551 16.7959 13.4367 10.0775 6.71834 3.35918 55.705 50.3001 47.1195 43.6784 40.3121 36.9517 33.5919 30.2327 26.8734 23.5142 20.1551 16.7959 13.4367 10.0775 6.71834 3.35918 56.9934 50.3282 47.0844 43.6693 40.3093 36.9509 33.5917 30.2326 26.8734 23.5142 20.1551 16.7959 13.4367 10.0775 6.71834 3.35918 57.4015 50.4051 47.1024 43.6739 40.3101 36.9511 33.5917 30.2326 26.8734 23.5142 20.155 16.7959 13.4367 10.0775 6.71834 3.35918 56.0917 50.3509 47.1313 43.6813 40.3125 36.9517 33.5919 30.2326 26.8734 23.5142 20.1551 16.7959 13.4367 10.0775 6.71834 3.35918 55.2399 50.2915 47.1298 43.6806 40.3129 36.9519 33.5919 30.2327 26.8734 23.5142 20.1551 16.7959 13.4367 10.0775 6.71834 3.35918 54.8621 50.2632 47.1238 43.6792 40.3129 36.952 33.592 30.2327 26.8734 23.5142 20.1551 16.7959 13.4367 10.0775 6.71834 3.35918 54.8621 50.2632 47.1238 43.6792 40.3129 36.952 33.592 30.2327 26.8734 23.5142 20.1551 16.7959 13.4367 10.0775 6.71834 3.35918 55.2399 50.2915 47.1298 43.6806 40.3129 36.9519 33.5919 30.2327 26.8734 23.5142 20.1551 16.7959 13.4367 10.0775 6.71834 3.35918 56.0917 50.3509 47.1313 43.6813 40.3125 36.9517 33.5919 30.2326 26.8734 23.5142 20.1551 16.7959 13.4367 10.0775 6.71834 3.35918 57.4016 50.4051 47.1024 43.6739 40.3101 36.9511 33.5917 30.2326 26.8734 23.5142 20.1551 16.7959 13.4367 10.0775 6.71834 3.35918 58.3298 50.5638 47.1272 43.6804 40.3112 36.9512 33.5918 30.2326 26.8734 23.5142 20.155 16.7959 13.4367 10.0775 6.71834 3.35918 56.9687 50.454 47.1426 43.6844 40.3127 36.9516 33.5919 30.2326 26.8734 23.5142 20.155 16.7959 13.4367 10.0775 6.71834 3.35918 56.0917 50.3509 47.1313 43.6813 40.3125 36.9517 33.5919 30.2326 26.8734 23.5142 20.1551 16.7959 13.4367 10.0775 6.71834 3.35918 55.705 50.3001 47.1195 43.6784 40.3121 36.9517 33.5919 30.2327 26.8734 23.5142 20.1551 16.7959 13.4367 10.0775 6.71834 3.35918 55.705 50.3001 47.1195 43.6784 40.3121 36.9517 33.5919 30.2327 26.8734 23.5142 20.1551 16.7959 13.4367 10.0775 6.71834 3.35918 56.0917 50.3509 47.1313 43.6813 40.3125 36.9517 33.5919 30.2326 26.8734 23.5142 20.1551 16.7959 13.4367 10.0775 6.71834 3.35918 56.9687 50.454 47.1426 43.6844 40.3127 36.9516 33.5919 30.2326 26.8734 23.5142 20.155 16.7959 13.4367 10.0775 6.71834 3.35918 58.3298 50.5638 47.1272 43.6804 40.3112 36.9512 33.5918 30.2326 26.8734 23.5142 20.155 16.7959 13.4367 10.0775 6.71834 3.35918 59.7867 50.752 47.1332 43.6819 40.3112 36.9511 33.5917 30.2326 26.8734 23.5142 20.155 16.7959 13.4367 10.0775 6.71834 3.35918 58.3298 50.5638 47.1272 43.6804 40.3112 36.9512 33.5918 30.2326 26.8734 23.5142 20.155 16.7959 13.4367 10.0775 6.71834 3.35918 57.4015 50.4051 47.1024 43.6739 40.3101 36.9511 33.5917 30.2326 26.8734 23.5142 20.1551 16.7959 13.4367 10.0775 6.71834 3.35918 56.9934 50.3282 47.0844 43.6693 40.3093 36.9509 33.5917 30.2326 26.8734 23.5142 20.1551 16.7959 13.4367 10.0775 6.71834 3.35918 56.9934 50.3282 47.0844 43.6693 40.3093 36.9509 33.5917 30.2326 26.8734 23.5142 20.1551 16.7959 13.4367 10.0775 6.71834 3.35918 57.4016 50.4051 47.1024 43.6739 40.3101 36.9511 33.5917 30.2326 26.8734 23.5142 20.1551 16.7959 13.4367 10.0775 6.71834 3.35918 58.3298 50.5638 47.1272 43.6804 40.3112 36.9512 33.5918 30.2326 26.8734 23.5142 20.155 16.7959 13.4367 10.0775 6.71834 3.35918 59.7867 50.752 47.1332 43.6819 40.3112 36.9511 33.5917 30.2326 26.8734 23.5142 20.155 16.7959 13.4367 10.0775 6.71834 3.35918 pp 1 1024 float
0.000238801 0.000234643 0.000228413 0.00022039 0.000210484 0.000198898 0.000185719 0.000171082 0.000155137 0.000138035 0.000119926 0.000100969 8.13433e-05 6.11776e-05 4.08265e-05 1.95969e-05 0.000238588 0.000234406 0.000228175 0.000220164 0.000210265 0.000198691 0.000185525 0.000170902 0.000154972 0.000137889 0.000119799 0.00010086 8.12553e-05 6.11053e-05 4.07916e-05 1.96189e-05 0.000238217 0.00023405 0.00022781 0.000219805 0.000209916 0.00019836 0.000185214 0.000170613 0.000154709 0.000137654 0.000119593 0.000100685 8.11132e-05 6.09931e-05 4.0723e-05 1.96118e-05 0.000238007 0.000233863 0.000227617 0.00021961 0.000209724 0.000198177 0.000185043 0.000170456 0.000154565 0.000137523 0.000119479 0.000100588 8.10342e-05 6.09312e-05 4.06833e-05 1.96046e-05 0.000237998 0.00023386 0.000227615 0.000219609 0.000209724 0.000198177 0.000185043 0.000170455 0.000154565 0.000137523 0.000119479 0.000100588 8.10343e-05 6.09315e-05 4.06835e-05 1.96048e-05 0.000238188 0.000234038 0.000227805 0.000219802 0.000209913 0.000198358 0.000185212 0.000170612 0.000154708 0.000137653 0.000119592 0.000100685 8.11133e-05 6.09936e-05 4.07235e-05 1.96123e-05 0.000238523 0.000234372 0.000228151 0.000220144 0.000210246 0.000198673 0.000185509 0.000170887 0.00015496 0.000137878 0.000119789 0.000100853 8.12495e-05 6.11015e-05 4.07894e-05 1.96177e-05 0.000238652 0.000234537 0.000228321 0.000220305 0.000210403 0.000198821 0.000185648 0.000171017 0.000155078 0.000137983 0.000119881 0.000100932 8.13134e-05 6.11557e-05 4.08118e-05 1.95871e-05 0.000238588 0.000234406 0.000228175 0.000220164 0.000210265 0.000198691 0.000185525 0.000170902 0.000154972 0.000137889 0.000119799 0.00010086 8.12553e-05 6.11053e-05 4.07916e-05 1.96189e-05 0.000238285 0.000234141 0.000227922 0.000219927 0.000210035 0.000198475 0.000185322 0.00017071 0.000154799 0.000137739 0.000119667 0.000100749 8.11659e-05 6.10321e-05 4.07541e-05 1.96363e-05 0.000237869 0.000233788 0.000227564 0.000219572 0.000209689 0.000198145 0.000185013 0.000170421 0.000154536 0.000137507 0.000119464 0.000100576 8.10259e-05 6.09217e-05 4.06856e-05 1.96295e-05 0.000237657 0.000233622 0.000227388 0.000219392 0.000209511 0.000197976 0.000184854 0.000170273 0.000154401 0.000137385 0.000119358 0.000100486 8.09525e-05 6.08642e-05 4.06484e-05 1.96248e-05 0.000237648 0.000233618 0.000227386 0.000219391 0.00020951 0.000197975 0.000184853 0.000170273 0.000154401 0.000137385 0.000119358 0.000100485 8.09525e-05 6.08644e-05 4.06485e-05 1.96248e-05 0.000237843 0.000233779 0.00022756 0.00021957 0.000209688 0.000198145 0.000185013 0.000170421 0.000154536 0.000137506 0.000119464 0.000100576 8.10265e-05 6.09225e-05 4.06863e-05 1.96299e-05 0.00023823 0.000234116 0.000227907 0.000219915 0.000210025 0.000198465 0.000185313 0.000170702 0.000154792 0.000137733 0.000119662 0.000100745 8.11633e-05 6.10308e-05 4.07535e-05 1.96359e-05 0.00023846 0.000234324 0.000228106 0.0002201 0.000210204 0.000198634 0.000185472 0.000170853 0.000154928 0.00013785 0.000119765 0.000100833 8.12334e-05 6.10894e-05 4.0781e-05 1.96119e-05 0.000238217 0.00023405 0.00022781 0.000219805 0.000209916 0.00019836 0.000185214 0.000170613 0.000154709 0.000137654 0.000119593 0.000100685 8.11132e-05 6.09931e-05 4.0723e-05 1.96118e-05 0.000237869 0.000233788 0.000227564 0.000219572 0.000209689 0.000198145 0.000185013 0.000170421 0.000154536 0.000137507 0.000119464 0.000100576 8.10259e-05 6.09217e-05 4.06856e-05 1.96295e-05 0.000237424 0.00023345 0.000227214 0.000219218 0.000209341 0.000197814 0.000184702 0.000170134 0.000154269 0.000137267 0.000119259 0.000100402 8.08854e-05 6.08109e-05 4.0616e-05 1.96249e-05 0.000237208 0.000233302 0.000227051 0.000219046 0.000209169 0.000197649 0.000184547 0.000169991 0.000154136 0.000137146 0.000119155 0.000100314 8.08137e-05 6.0755e-05 4.05797e-05 1.96228e-05 0.0002372 0.000233299 0.00022705 0.000219045 0.000209169 0.000197649 0.000184547 0.000169991 0.000154137 0.000137146 0.000119156 0.000100314 8.0814e-05 6.07554e-05 4.05799e-05 1.96229e-05 0.000237401 0.000233444 0.000227212 0.000219218 0.000209342 0.000197816 0.000184704 0.000170136 0.000154271 0.000137268 0.000119261 0.000100404 8.0887e-05 6.08126e-05 4.06172e-05 1.96254e-05 0.000237822 0.000233773 0.000227557 0.000219568 0.000209686 0.000198143 0.000185011 0.00017042 0.000154535 0.000137506 0.000119463 0.000100576 8.10264e-05 6.09227e-05 4.06864e-05 1.963e-05 0.000238105 0.000233986 0.000227759 0.000219758 0.000209871 0.000198317 0.000185175 0.000170577 0.000154677 0.000137625 0.000119568 0.000100665 8.10974e-05 6.09819e-05 4.07156e-05 1.96067e-05 0.000238007 0.000233863 0.000227617 0.00021961 0.000209724 0.000198177 0.000185043 0.000170456 0.000154565 0.000137523 0.000119479 0.000100588 8.10342e-05 6.09312e-05 4.06833e-05 1.96046e-05 0.000237657 0.000233622 0.000227388 0.000219392 0.000209511 0.000197976 0.000184854 0.000170273 0.000154401 0.000137385 0.000119358 0.000100486 8.09525e-05 6.08642e-05 4.06484e-05 1.96248e-05 0.000237208 0.000233302 0.000227051 0.000219046 0.000209169 0.000197649 0.000184547 0.000169991 0.000154136 0.000137146 0.000119155 0.000100314 8.08137e-05 6.0755e-05 4.05797e-05 1.96228e-05 0.000236992 0.000233166 0.000226897 0.00021888 0.000209 0.000197486 0.000184393 0.000169851 0.000154006 0.000137027 0.000119054 0.000100227 8.07432e-05 6.07001e-05 4.0544e-05 1.96229e-05 0.000236985 0.000233164 0.000226897 0.00021888 0.000209 0.000197487 0.000184394 0.000169851 0.000154006 0.000137027 0.000119054 0.000100228 8.07436e-05 6.07006e-05 4.05443e-05 1.9623e-05 0.000237188 0.000233297 0.000227051 0.000219048 0.000209172 0.000197652 0.00018455 0.000169995 0.00015414 0.000137149 0.000119158 0.000100316 8.0816e-05 6.07571e-05 4.05811e-05 1.96234e-05 0.000237614 0.00023361 0.000227385 0.000219392 0.000209512 0.000197977 0.000184855 0.000170275 0.000154403 0.000137386 0.000119359 0.000100487 8.09545e-05 6.08664e-05 4.065e-05 1.96255e-05 0.000237902 0.000233806 0.000227572 0.00021957 0.000209686 0.000198141 0.000185009 0.000170425 0.000154537 0.000137499 0.000119458 0.000100571 8.10211e-05 6.09221e-05 4.06773e-05 1.96003e-05 0.000237998 0.00023386 0.000227615 0.000219609 0.000209724 0.000198177 0.000185043 0.000170455 0.000154565 0.000137523 0.000119479 0.000100588 8.10343e-05 6.09315e-05 4.06835e-05 1.96048e-05 0.000237648 0.000233618 0.000227386 0.000219391 0.00020951 0.000197975 0.000184853 0.000170273 0.000154401 0.000137385 0.000119358 0.000100485 8.09525e-05 6.08644e-05 4.06485e-05 1.96248e-05 0.0002372 0.000233299 0.00022705 0.000219045 0.000209169 0.000197649 0.000184547 0.000169991 0.000154137 0.000137146 0.000119156 0.000100314 8.0814e-05 6.07554e-05 4.05799e-05 1.96229e-05 0.000236985 0.000233164 0.000226897 0.00021888 0.000209 0.000197487 0.000184394 0.000169851 0.000154006 0.000137027 0.000119054 0.000100228 8.07436e-05 6.07006e-05 4.05443e-05 1.9623e-05 0.000236978 0.000233161 0.000226896 0.000218879 0.000209001 0.000197487 0.000184394 0.000169852 0.000154007 0.000137028 0.000119055 0.000100228 8.07441e-05 6.0701e-05 4.05446e-05 1.96231e-05 0.00023718 0.000233294 0.00022705 0.000219048 0.000209172 0.000197652 0.00018455 0.000169995 0.00015414 0.000137149 0.000119158 0.000100317 8.08162e-05 6.07575e-05 4.05814e-05 1.96235e-05 0.000237605 0.000233607 0.000227383 0.000219391 0.000209511 0.000197976 0.000184854 0.000170275 0.000154402 0.000137386 0.000119359 0.000100487 8.09545e-05 6.08665e-05 4.06501e-05 1.96255e-05 0.000237892 0.000233803 0.00022757 0.000219569 0.000209685 0.000198141 0.000185009 0.000170424 0.000154537 0.000137499 0.000119458 0.000100571 8.10212e-05 6.09223e-05 4.06775e-05 1.96004e-05 0.000238188 0.000234038 0.000227805 0.000219802 0.000209913 0.000198358 0.000185212 0.000170612 0.000154708 0.000137653 0.000119592 0.000100685 8.11133e-05 6.09936e-05 4.07235e-05 1.96123e-05 0.000237843 0.000233779 0.00022756 0.00021957 0.000209688 0.000198145 0.000185013 0.000170421 0.000154536 0.000137506 0.000119464 0.000100576 8.10265e-05 6.09225e-05 4.06863e-05 1.96299e-05 0.000237401 0.000233444 0.000227212 0.000219218 0.000209342 0.000197816 0.000184704 0.000170136 0.000154271 0.000137268 0.000119261 0.000100404 8.0887e-05 6.08126e-05 4.06172e-05 1.96254e-05 0.000237188 0.000233297 0.000227051 0.000219048 0.000209172 0.000197652 0.00018455 0.000169995 0.00015414 0.000137149 0.000119158 0.000100316 8.0816e-05 6.07571e-05 4.05811e-05 1.96234e-05 0.00023718 0.000233294 0.00022705 0.000219048 0.000209172 0.000197652 0.00018455 0.000169995 0.00015414 0.000137149 0.000119158 0.000100317 8.08162e-05 6.07575e-05 4.05814e-05 1.96235e-05 0.000237379 0.000233437 0.00022721 0.000219219 0.000209344 0.000197817 0.000184706 0.000170138 0.000154273 0.00013727 0.000119262 0.000100405 8.08885e-05 6.08142e-05 4.06183e-05 1.96258e-05 0.000237796 0.000233763 0.000227552 0.000219565 0.000209684 0.000198142 0.00018501 0.00017042 0.000154535 0.000137505 0.000119463 0.000100576 8.10269e-05 6.09234e-05 4.06869e-05 1.96302e-05 0.000238076 0.000233974 0.000227753 0.000219754 0.000209868 0.000198315 0.000185172 0.000170575 0.000154675 0.000137624 0.000119567 0.000100665 8.10974e-05 6.09823e-05 4.0716e-05 1.9607e-05 0.000238523 0.000234372 0.000228151 0.000220144 0.000210246 0.000198673 0.000185509 0.000170887 0.00015496 0.000137878 0.000119789 0.000100853 8.12495e-05 6.11015e-05 4.07894e-05 1.96177e-05 0.00023823 0.000234116 0.000227907 0.000219915 0.000210025 0.000198465 0.000185313 0.000170702 0.000154792 0.000137733 0.000119662 0.000100745 8.11633e-05 6.10308e-05 4.07535e-05 1.96359e-05 0.000237822 0.000233773 0.000227557 0.000219568 0.000209686 0.000198143 0.000185011 0.00017042 0.000154535 0.000137506 0.000119463 0.000100576 8.10264e-05 6.09227e-05 4.06864e-05 1.963e-05 0.000237614 0.00023361 0.000227385 0.000219392 0.000209512 0.000197977 0.000184855 0.000170275 0.000154403 0.000137386 0.000119359 0.000100487 8.09545e-05 6.08664e-05 4.065e-05 1.96255e-05 0.000237605 0.000233607 0.000227383 0.000219391 0.000209511 0.000197976 0.000184854 0.000170275 0.000154402 0.000137386 0.000119359 0.000100487 8.09545e-05 6.08665e-05 4.06501e-05 1.96255e-05 0.000237796 0.000233763 0.000227552 0.000219565 0.000209684 0.000198142 0.00018501 0.00017042 0.000154535 0.000137505 0.000119463 0.000100576 8.10269e-05 6.09234e-05 4.06869e-05 1.96302e-05 0.000238174 0.000234091 0.00022789 0.000219902 0.000210013 0.000198454 0.000185304 0.000170694 0.000154785 0.000137727 0.000119657 0.000100741 8.11605e-05 6.10292e-05 4.07525e-05 1.96353e-05 0.000238394 0.000234289 0.000228081 0.000220079 0.000210184 0.000198615 0.000185455 0.000170837 0.000154915 0.000137838 0.000119755 0.000100825 8.12273e-05 6.10855e-05 4.07785e-05 1.96104e-05 0.000238652 0.000234537 0.000228321 0.000220305 0.000210403 0.000198821 0.000185648 0.000171017 0.000155078 0.000137983 0.000119881 0.000100932 8.13134e-05 6.11557e-05 4.08118e-05 1.95871e-05 0.00023846 0.000234324 0.000228106 0.0002201 0.000210204 0.000198634 0.000185472 0.000170853 0.000154928 0.00013785 0.000119765 0.000100833 8.12334e-05 6.10894e-05 4.0781e-05 1.96119e-05 0.000238105 0.000233986 0.000227759 0.000219758 0.000209871 0.000198317 0.000185175 0.000170577 0.000154677 0.000137625 0.000119568 0.000100665 8.10974e-05 6.09819e-05 4.07156e-05 1.96067e-05 0.000237902 0.000233806 0.000227572 0.00021957 0.000209686 0.000198141 0.000185009 0.000170425 0.000154537 0.000137499 0.000119458 0.000100571 8.10211e-05 6.09221e-05 4.06773e-05 1.96003e-05 0.000237892 0.000233803 0.00022757 0.000219569 0.000209685 0.000198141 0.000185009 0.000170424 0.000154537 0.000137499 0.000119458 0.000100571 8.10212e-05 6.09223e-05 4.06775e-05 1.96004e-05 0.000238076 0.000233974 0.000227753 0.000219754 0.000209868 0.000198315 0.000185172 0.000170575 0.000154675 0.000137624 0.000119567 0.000100665 8.10974e-05 6.09823e-05 4.0716e-05 1.9607e-05 0.000238394 0.000234289 0.000228081 0.000220079 0.000210184 0.000198615 0.000185455 0.000170837 0.000154915 0.000137838 0.000119755 0.000100825 8.12273e-05 6.10855e-05 4.07785e-05 1.96104e-05 0.000238503 0.000234432 0.000228229 0.000220218 0.000210321 0.000198744 0.000185576 0.00017095 0.000155018 0.00013793 0.000119836 0.000100894 8.12834e-05 6.11337e-05 4.07968e-05 1.9577e-05 