# vtk DataFile Version 3.0
flash 3d grid and solution
ASCII
DATASET RECTILINEAR_GRID
DIMENSIONS 17 9 9
X_COORDINATES 17 float
-0.0625 -0.0546875 -0.046875 -0.0390625 -0.03125 -0.0234375 -0.015625 -0.0078125 0 0.0078125 0.015625 0.0234375 0.03125 0.0390625 0.046875 0.0546875 0.0625 
Y_COORDINATES 9 float
-0.0125 -0.009375 -0.00625 -0.003125 0 0.003125 0.00625 0.009375 0.0125 
Z_COORDINATES 9 float
-0.0125 -0.009375 -0.00625 -0.003125 0 0.003125 0.00625 0.009375 0.0125 
CELL_DATA 1024
FIELD FieldData 3
u 1 1024 float
0.325267 0.303385 0.215749 0.207811 0.205718 0.205372 0.205328 0.205319 0.205319 0.205319 0.205318 0.205318 0.205318 0.205317 0.205317 0.205317 0.502917 0.519469 0.418651 0.409671 0.40665 0.406106 0.406027 0.406009 0.406007 0.406006 0.406005 0.406004 0.406004 0.406003 0.406003 0.406003 0.554864 0.601387 0.51849 0.513794 0.511447 0.511049 0.510999 0.510984 0.510982 0.510981 0.51098 0.510979 0.510978 0.510977 0.510977 0.510977 0.569213 0.630147 0.560408 0.559103 0.557531 0.557316 0.557304 0.557295 0.557295 0.557293 0.557292 0.557291 0.55729 0.55729 0.557289 0.557289 0.569213 0.630147 0.560408 0.559103 0.557531 0.557316 0.557304 0.557295 0.557295 0.557293 0.557292 0.557291 0.55729 0.55729 0.557289 0.557289 0.554864 0.601387 0.51849 0.513794 0.511447 0.511049 0.510999 0.510984 0.510982 0.510981 0.51098 0.510979 0.510978 0.510977 0.510977 0.510977 0.502917 0.519469 0.418651 0.409671 0.40665 0.406106 0.406027 0.406009 0.406007 0.406006 0.406005 0.406004 0.406004 0.406003 0.406003 0.406003 0.325267 0.303385 0.215749 0.207811 0.205718 0.205372 0.205328 0.205319 0.205319 0.205319 0.205318 0.205318 0.205318 0.205317 0.205317 0.205317 0.502917 0.519469 0.418651 0.409671 0.40665 0.406106 0.406027 0.406009 0.406007 0.406006 0.406005 0.406004 0.406004 0.406003 0.406003 0.406003 0.86995 1.0144 0.908795 0.899398 0.894973 0.894041 0.893882 0.893841 0.893834 0.893831 0.893829 0.893827 0.893825 0.893824 0.893823 0.893823 1.00554 1.23892 1.17484 1.17506 1.17243 1.17185 1.17175 1.17172 1.17171 1.17171 1.1717 1.1717 1.1717 1.1717 1.1717 1.1717 1.05039 1.32598 1.29107 1.29914 1.29846 1.29832 1.29832 1.2983 1.2983 1.29829 1.29829 1.29829 1.29829 1.29828 1.29828 1.29828 1.05039 1.32598 1.29107 1.29914 1.29846 1.29832 1.29832 1.2983 1.2983 1.29829 1.29829 1.29829 1.29829 1.29828 1.29828 1.29828 1.00554 1.23892 1.17484 1.17506 1.17243 1.17185 1.17175 1.17172 1.17171 1.17171 1.1717 1.1717 1.1717 1.1717 1.1717 1.1717 0.86995 1.0144 0.908795 0.899398 0.894973 0.894041 0.893882 0.893841 0.893834 0.893831 0.893829 0.893827 0.893826 0.893824 0.893823 0.893823 0.502917 0.519469 0.418651 0.409671 0.40665 0.406106 0.406027 0.406009 0.406007 0.406006 0.406005 0.406004 0.406004 0.406003 0.406003 0.406003 0.554864 0.601387 0.51849 0.513794 0.511447 0.511049 0.510999 0.510984 0.510982 0.510981 0.51098 0.510979 0.510978 0.510977 0.510977 0.510977 1.00554 1.23892 1.17484 1.17506 1.17243 1.17185 1.17175 1.17172 1.17171 1.17171 1.1717 1.1717 1.1717 1.1717 1.1717 1.1717 1.18911 1.55082 1.54774 1.56303 1.5637 1.56381 1.56384 1.56383 1.56382 1.56382 1.56381 1.56381 1.56381 1.56381 1.5638 1.5638 1.25452 1.67737 1.71445 1.74122 1.74494 1.74578 1.74597 1.74599 1.74599 1.74598 1.74598 1.74597 1.74597 1.74597 1.74597 1.74596 1.25452 1.67737 1.71445 1.74122 1.74494 1.74578 1.74597 1.74599 1.74599 1.74598 1.74598 1.74597 1.74597 1.74597 1.74597 1.74596 1.18911 1.55082 1.54774 1.56303 1.5637 1.56381 1.56384 1.56383 1.56382 1.56382 1.56381 1.56381 1.56381 1.56381 1.5638 1.5638 1.00554 1.23892 1.17484 1.17506 1.17243 1.17185 1.17175 1.17172 1.17171 1.17171 1.1717 1.1717 1.1717 1.1717 1.1717 1.1717 0.554864 0.601387 0.51849 0.513794 0.511447 0.511049 0.510999 0.510984 0.510982 0.510981 0.51098 0.510979 0.510978 0.510977 0.510977 0.510977 0.569213 0.630147 0.560408 0.559103 0.557531 0.557316 0.557304 0.557295 0.557295 0.557293 0.557292 0.557291 0.55729 0.55729 0.557289 0.557289 1.05039 1.32598 1.29107 1.29914 1.29846 1.29832 1.29832 1.2983 1.2983 1.29829 1.29829 1.29829 1.29829 1.29828 1.29828 1.29828 1.25452 1.67737 1.71445 1.74122 1.74494 1.74578 1.74597 1.74599 1.74599 1.74598 1.74598 1.74597 1.74597 1.74597 1.74597 1.74596 1.32965 1.82284 1.9058 1.94621 1.95371 1.95548 1.95588 1.95593 1.95594 1.95593 1.95593 1.95592 1.95592 1.95592 1.95591 1.95591 1.32965 1.82284 1.9058 1.94621 1.95371 1.95548 1.95588 1.95593 1.95594 1.95593 1.95593 1.95592 1.95592 1.95592 1.95591 1.95591 1.25452 1.67737 1.71445 1.74122 1.74494 1.74578 1.74597 1.74599 1.74599 1.74598 1.74598 1.74597 1.74597 1.74597 1.74597 1.74597 1.05039 1.32598 1.29107 1.29914 1.29846 1.29832 1.29832 1.2983 1.2983 1.29829 1.29829 1.29829 1.29829 1.29828 1.29828 1.29828 0.569213 0.630147 0.560408 0.559103 0.557531 0.557316 0.557304 0.557296 0.557295 0.557294 0.557292 0.557291 0.55729 0.55729 0.557289 0.557289 0.569213 0.630147 0.560408 0.559103 0.557531 0.557316 0.557304 0.557295 0.557295 0.557293 0.557292 0.557291 0.55729 0.55729 0.557289 0.557289 1.05039 1.32598 1.29107 1.29914 1.29846 1.29832 1.29832 1.2983 1.2983 1.29829 1.29829 1.29829 1.29829 1.29828 1.29828 1.29828 1.25452 1.67737 1.71445 1.74122 1.74494 1.74578 1.74597 1.74599 1.74599 1.74598 1.74598 1.74597 1.74597 1.74597 1.74597 1.74596 1.32965 1.82284 1.9058 1.94621 1.95371 1.95548 1.95588 1.95593 1.95594 1.95593 1.95593 1.95592 1.95592 1.95592 1.95591 1.95591 1.32965 1.82284 1.9058 1.94621 1.95371 1.95548 1.95588 1.95593 1.95594 1.95593 1.95593 1.95592 1.95592 1.95592 1.95591 1.95591 1.25452 1.67737 1.71445 1.74122 1.74494 1.74578 1.74597 1.74599 1.74599 1.74598 1.74598 1.74597 1.74597 1.74597 1.74597 1.74597 1.05039 1.32598 1.29107 1.29914 1.29846 1.29832 1.29832 1.2983 1.2983 1.29829 1.29829 1.29829 1.29829 1.29828 1.29828 1.29828 0.569213 0.630147 0.560408 0.559103 0.557531 0.557316 0.557304 0.557296 0.557295 0.557294 0.557292 0.557291 0.55729 0.55729 0.557289 0.557289 0.554864 0.601387 0.51849 0.513794 0.511447 0.511049 0.510999 0.510984 0.510982 0.510981 0.51098 0.510979 0.510978 0.510977 0.510977 0.510977 1.00554 1.23892 1.17484 1.17506 1.17243 1.17185 1.17175 1.17172 1.17171 1.17171 1.1717 1.1717 1.1717 1.1717 1.1717 1.1717 1.18911 1.55082 1.54774 1.56303 1.5637 1.56381 1.56384 1.56383 1.56382 1.56382 1.56381 1.56381 1.56381 1.56381 1.5638 1.5638 1.25452 1.67737 1.71445 1.74122 1.74494 1.74578 1.74597 1.74599 1.74599 1.74598 1.74598 1.74597 1.74597 1.74597 1.74597 1.74597 1.25452 1.67737 1.71445 1.74122 1.74494 1.74578 1.74597 1.74599 1.74599 1.74598 1.74598 1.74597 1.74597 1.74597 1.74597 1.74597 1.18911 1.55082 1.54774 1.56303 1.5637 1.56381 1.56384 1.56383 1.56382 1.56382 1.56382 1.56381 1.56381 1.56381 1.56381 1.5638 1.00554 1.23892 1.17484 1.17506 1.17243 1.17185 1.17175 1.17172 1.17171 1.17171 1.1717 1.1717 1.1717 1.1717 1.1717 1.1717 0.554864 0.601387 0.51849 0.513794 0.511447 0.511049 0.510999 0.510984 0.510982 0.510981 0.51098 0.510979 0.510978 0.510978 0.510977 0.510977 0.502917 0.519469 0.418651 0.409671 0.40665 0.406106 0.406027 0.406009 0.406007 0.406006 0.406005 0.406004 0.406004 0.406003 0.406003 0.406003 0.86995 1.0144 0.908795 0.899398 0.894973 0.894041 0.893882 0.893841 0.893834 0.893831 0.893829 0.893827 0.893826 0.893824 0.893823 0.893823 1.00554 1.23892 1.17484 1.17506 1.17243 1.17185 1.17175 1.17172 1.17171 1.17171 1.1717 1.1717 1.1717 1.1717 1.1717 1.1717 1.05039 1.32598 1.29107 1.29914 1.29846 1.29832 1.29832 1.2983 1.2983 1.29829 1.29829 1.29829 1.29829 1.29828 1.29828 1.29828 1.05039 1.32598 1.29107 1.29914 1.29846 1.29832 1.29832 1.2983 1.2983 1.29829 1.29829 1.29829 1.29829 1.29828 1.29828 1.29828 1.00554 1.23892 1.17484 1.17506 1.17243 1.17185 1.17175 1.17172 1.17171 1.17171 1.1717 1.1717 1.1717 1.1717 1.1717 1.1717 0.86995 1.0144 0.908795 0.899398 0.894973 0.894041 0.893882 0.893841 0.893834 0.893831 0.893829 0.893827 0.893826 0.893825 0.893824 0.893823 0.502917 0.519469 0.418651 0.409671 0.40665 0.406106 0.406027 0.406009 0.406007 0.406006 0.406005 0.406004 0.406004 0.406003 0.406003 0.406003 0.325267 0.303385 0.215749 0.207811 0.205718 0.205372 0.205328 0.205319 0.205319 0.205319 0.205318 0.205318 0.205318 0.205317 0.205317 0.205317 0.502917 0.519469 0.418651 0.409671 0.40665 0.406106 0.406027 0.406009 0.406007 0.406006 0.406005 0.406004 0.406004 0.406003 0.406003 0.406003 0.554864 0.601387 0.51849 0.513794 0.511447 0.511049 0.510999 0.510984 0.510982 0.510981 0.51098 0.510979 0.510978 0.510977 0.510977 0.510977 0.569213 0.630147 0.560408 0.559103 0.557531 0.557316 0.557304 0.557296 0.557295 0.557294 0.557292 0.557291 0.55729 0.55729 0.557289 0.557289 0.569213 0.630147 0.560408 0.559103 0.557531 0.557316 0.557304 0.557296 0.557295 0.557294 0.557292 0.557291 0.55729 0.55729 0.557289 0.557289 0.554864 0.601387 0.51849 0.513794 0.511447 0.511049 0.510999 0.510984 0.510982 0.510981 0.51098 0.510979 0.510978 0.510978 0.510977 0.510977 0.502917 0.519469 0.418651 0.409671 0.40665 0.406106 0.406027 0.406009 0.406007 0.406006 0.406005 0.406004 0.406004 0.406003 0.406003 0.406003 0.325267 0.303385 0.215749 0.207811 0.205718 0.205372 0.205328 0.205319 0.205319 0.205319 0.205318 0.205318 0.205318 0.205317 0.205317 0.205317 v 1 1024 float
0.0691495 0.0172885 0.00252408 0.000519462 9.25249e-05 1.33608e-05 1.98566e-06 7.05468e-09 -1.45452e-07 -1.23661e-07 -9.8543e-08 -7.99556e-08 -6.40091e-08 -5.04306e-08 -2.86326e-08 -2.33312e-11 0.12956 0.0368597 0.00685581 0.00155756 0.000310743 5.40296e-05 9.31215e-06 9.20391e-07 -2.05927e-07 -2.82992e-07 -2.40173e-07 -1.96228e-07 -1.57146e-07 -1.22935e-07 -7.34928e-08 -1.00342e-08 0.0927668 0.0309055 0.00732218 0.00182343 0.000396575 7.69524e-05 1.43344e-05 1.9726e-06 -1.85309e-08 -2.52623e-07 -2.34526e-07 -1.9362e-07 -1.55137e-07 -1.20537e-07 -7.53614e-08 -1.85454e-08 0.031905 0.0115113 0.00305914 0.000794491 0.000179703 3.64526e-05 7.01081e-06 1.05456e-06 3.80528e-08 -9.59959e-08 -9.49518e-08 -7.89567e-08 -6.32179e-08 -4.88538e-08 -3.11644e-08 -9.26898e-09 -0.031905 -0.0115113 -0.00305917 -0.000794514 -0.000179724 -3.64719e-05 -7.02852e-06 -1.07043e-06 -5.22506e-08 8.33689e-08 8.41776e-08 7.01242e-08 5.63915e-08 4.3994e-08 2.78638e-08 6.91797e-09 -0.0927668 -0.0309056 -0.00732221 -0.00182347 -0.000396604 -7.69793e-05 -1.43593e-05 -1.99521e-06 -1.85971e-09 2.34538e-07 2.19007e-07 1.80754e-07 1.45007e-07 1.13117e-07 7.02741e-08 1.50004e-08 -0.12956 -0.0368598 -0.00685586 -0.0015576 -0.000310785 -5.40689e-05 -9.34877e-06 -9.54131e-07 1.75379e-07 2.55966e-07 2.16818e-07 1.76678e-07 1.41527e-07 1.11254e-07 6.5398e-08 4.37205e-09 -0.0691495 -0.0172885 -0.00252411 -0.000519487 -9.25493e-05 -1.33838e-05 -2.00719e-06 -2.69571e-08 1.27416e-07 1.07715e-07 8.47287e-08 6.83572e-08 5.47021e-08 4.34296e-08 2.37566e-08 -3.4234e-09 0.105403 0.0290544 0.00487381 0.00101411 0.000185754 2.76421e-05 4.0923e-06 7.40295e-08 -2.82875e-07 -2.4474e-07 -1.9565e-07 -1.58909e-07 -1.27359e-07 -9.98892e-08 -5.94015e-08 -7.67875e-09 0.204217 0.0653535 0.0140092 0.00327361 0.000682259 0.000124436 2.20539e-05 2.61498e-06 -2.72415e-07 -5.38904e-07 -4.72307e-07 -3.87971e-07 -3.11284e-07 -2.43014e-07 -1.50038e-07 -3.29722e-08 0.155065 0.058227 0.0155328 0.00402126 0.000918414 0.000186934 3.60596e-05 5.55527e-06 2.67861e-07 -4.50409e-07 -4.57701e-07 -3.83079e-07 -3.07952e-07 -2.39298e-07 -1.5271e-07 -4.52122e-08 0.0551873 0.0224415 0.00661341 0.00179236 0.000426222 9.0614e-05 1.80775e-05 2.99186e-06 2.44015e-07 -1.64371e-07 -1.86916e-07 -1.58611e-07 -1.27582e-07 -9.87164e-08 -6.40986e-08 -2.18701e-08 -0.0551874 -0.0224416 -0.00661348 -0.00179241 -0.000426272 -9.06596e-05 -1.81192e-05 -3.02935e-06 -2.77584e-07 1.34467e-07 1.61257e-07 1.37437e-07 1.11039e-07 8.66935e-08 5.56562e-08 1.56065e-08 -0.155065 -0.0582271 -0.0155329 -0.00402133 -0.000918473 -0.000186989 -3.61102e-05 -5.60122e-06 -3.09306e-07 4.13595e-07 4.26072e-07 3.56814e-07 2.87207e-07 2.23991e-07 1.41991e-07 3.74736e-08 -0.204217 -0.0653536 -0.0140093 -0.00327368 -0.000682331 -0.000124503 -2.21164e-05 -2.67248e-06 2.20352e-07 4.92878e-07 4.32567e-07 3.54722e-07 2.84728e-07 2.23137e-07 1.36152e-07 2.30911e-08 -0.105403 -0.0290545 -0.00487385 -0.00101415 -0.000185793 -2.76784e-05 -4.12616e-06 -1.0538e-07 2.54468e-07 2.19689e-07 1.73963e-07 1.40712e-07 1.12768e-07 8.89193e-08 5.17436e-08 2.21491e-09 0.114678 0.0317124 0.00566351 0.001221 0.000230028 3.4989e-05 5.23995e-06 1.32819e-07 -3.49407e-07 -3.02794e-07 -2.40559e-07 -1.94767e-07 -1.56035e-07 -1.22213e-07 -7.43502e-08 -1.29803e-08 0.225579 0.0735115 0.0169436 0.0041282 0.00089378 0.000168899 3.07521e-05 3.98039e-06 -2.1235e-07 -6.48078e-07 -5.79826e-07 -4.76875e-07 -3.82738e-07 -2.98651e-07 -1.8781e-07 -4.75218e-08 0.175562 0.0675746 0.0192862 0.00521576 0.0012408 0.000261928 5.2032e-05 8.50721e-06 6.37753e-07 -5.07591e-07 -5.59043e-07 -4.72343e-07 -3.80376e-07 -2.95708e-07 -1.91392e-07 -6.10212e-08 0.0634627 0.0264985 0.00830792 0.00235257 0.000583038 0.000128558 2.64345e-05 4.61238e-06 4.78242e-07 -1.7433e-07 -2.27971e-07 -1.96558e-07 -1.58585e-07 -1.22849e-07 -8.08065e-08 -2.92122e-08 -0.0634628 -0.0264986 -0.008308 -0.00235264 -0.000583102 -0.000128616 -2.64879e-05 -4.66032e-06 -5.21117e-07 1.36136e-07 1.95092e-07 1.69347e-07 1.37235e-07 1.07202e-07 6.95916e-08 2.0621e-08 -0.175562 -0.0675747 -0.0192863 -0.00521584 -0.00124087 -0.000261993 -5.20926e-05 -8.56219e-06 -6.87362e-07 4.63459e-07 5.21138e-07 4.40849e-07 3.55469e-07 2.77258e-07 1.78266e-07 5.12853e-08 -0.22558 -0.0735116 -0.0169437 -0.00412829 -0.00089386 -0.000168974 -3.08214e-05 -4.04425e-06 1.54478e-07 5.96917e-07 5.35719e-07 4.39989e-07 3.53281e-07 2.76582e-07 1.72278e-07 3.63139e-08 -0.114678 -0.0317125 -0.00566356 -0.00122105 -0.00023007 -3.5028e-05 -5.27631e-06 -1.66537e-07 3.18858e-07 2.75918e-07 2.17305e-07 1.75262e-07 1.40399e-07 1.10459e-07 6.61242e-08 7.07086e-09 0.116706 0.0318335 0.00580683 0.00127519 0.000243562 3.73069e-05 5.60394e-06 1.38007e-07 -3.80534e-07 -3.25202e-07 -2.56457e-07 -2.06951e-07 -1.65676e-07 -1.29702e-07 -7.96327e-08 -1.48148e-08 0.230973 0.0748602 0.0177524 0.00442417 0.000977694 0.00018811 3.47535e-05 4.65418e-06 -1.65863e-07 -6.85853e-07 -6.18952e-07 -5.08793e-07 -4.08241e-07 -3.18495e-07 -2.01895e-07 -5.29712e-08 0.181506 0.0697981 0.020495 0.0056769 0.00138094 0.000297244 6.00142e-05 1.00746e-05 8.62928e-07 -5.15836e-07 -5.9588e-07 -5.05857e-07 -4.07626e-07 -3.16963e-07 -2.06512e-07 -6.72534e-08 0.0660244 0.0275835 0.00888341 0.00257695 0.000653296 0.000146925 3.07226e-05 5.49306e-06 6.20184e-07 -1.69209e-07 -2.42587e-07 -2.11038e-07 -1.70516e-07 -1.32172e-07 -8.74906e-08 -3.22005e-08 -0.0660245 -0.0275836 -0.0088835 -0.00257703 -0.000653365 -0.000146988 -3.07801e-05 -5.54471e-06 -6.6634e-07 1.28097e-07 2.07147e-07 1.81672e-07 1.47435e-07 1.15192e-07 7.51736e-08 2.25847e-08 -0.181506 -0.0697982 -0.0204951 -0.00567699 -0.00138102 -0.000297313 -6.00778e-05 -1.01323e-05 -9.14982e-07 4.69502e-07 5.56094e-07 4.72795e-07 3.81462e-07 2.97542e-07 1.92557e-07 5.67319e-08 -0.230973 -0.0748603 -0.0177525 -0.00442426 -0.000977775 -0.000188186 -3.48243e-05 -4.71927e-06 1.06838e-07 6.3368e-07 5.74008e-07 4.71217e-07 3.78234e-07 2.95999e-07 1.85977e-07 4.13818e-08 -0.116706 -0.0318336 -0.00580687 -0.00127524 -0.000243604 -3.73462e-05 -5.64056e-06 -1.7199e-07 3.49743e-07 2.98147e-07 2.33057e-07 1.87327e-07 1.49947e-07 1.17878e-07 7.13371e-08 8.82918e-09 0.116706 0.0318335 0.00580683 0.0012752 0.000243564 3.73081e-05 5.60501e-06 1.39014e-07 -3.79606e-07 -3.24389e-07 -2.55756e-07 -2.06357e-07 -1.65191e-07 -1.29331e-07 -7.93944e-08 -1.46924e-08 0.230973 0.0748602 0.0177524 0.00442417 0.000977697 0.000188113 3.47562e-05 4.65665e-06 -1.63571e-07 -6.83822e-07 -6.17205e-07 -5.07312e-07 -4.0703e-07 -3.17561e-07 -2.01284e-07 -5.26427e-08 0.181506 0.0697981 0.020495 0.00567691 0.00138095 0.000297247 6.00168e-05 1.00771e-05 8.65234e-07 -5.13774e-07 -5.94104e-07 -5.04351e-07 -4.06391e-07 -3.16008e-07 -2.0588e-07 -6.69043e-08 0.0660244 0.0275835 0.00888342 0.00257695 0.000653297 0.000146926 3.07237e-05 5.49406e-06 6.2111e-07 -1.68378e-07 -2.4187e-07 -2.10428e-07 -1.70017e-07 -1.31786e-07 -8.72462e-08 -3.20722e-08 -0.0660245 -0.0275836 -0.0088835 -0.00257703 -0.000653366 -0.000146989 -3.07813e-05 -5.54576e-06 -6.67313e-07 1.27227e-07 2.06396e-07 1.81034e-07 1.4691e-07 1.1478e-07 7.48654e-08 2.23892e-08 -0.181506 -0.0697982 -0.0204951 -0.00567699 -0.00138102 -0.000297316 -6.00805e-05 -1.01348e-05 -9.17339e-07 4.67395e-07 5.5428e-07 4.71256e-07 3.80199e-07 2.96558e-07 1.91858e-07 5.63156e-08 -0.230973 -0.0748603 -0.0177525 -0.00442426 -0.000977778 -0.000188189 -3.48269e-05 -4.7218e-06 1.04498e-07 6.31607e-07 5.72225e-07 4.69706e-07 3.76998e-07 2.9504e-07 1.85315e-07 4.10043e-08 -0.116706 -0.0318336 -0.00580687 -0.00127524 -0.000243605 -3.73474e-05 -5.64164e-06 -1.73013e-07 3.48799e-07 2.9732e-07 2.32344e-07 1.86723e-07 1.49455e-07 1.17497e-07 7.10826e-08 8.69035e-09 0.114678 0.0317124 0.00566352 0.00122101 0.000230033 3.49929e-05 5.24361e-06 1.36266e-07 -3.46262e-07 -3.00041e-07 -2.38159e-07 -1.92731e-07 -1.54376e-07 -1.20944e-07 -7.35244e-08 -1.25167e-08 0.225579 0.0735115 0.0169437 0.00412821 0.00089379 0.000168909 3.07606e-05 3.98839e-06 -2.05022e-07 -6.41607e-07 -5.74199e-07 -4.72097e-07 -3.78834e-07 -2.95652e-07 -1.85835e-07 -4.63926e-08 0.175562 0.0675746 0.0192862 0.00521577 0.00124081 0.000261936 5.20402e-05 8.51477e-06 6.44698e-07 -5.0141e-07 -5.5367e-07 -4.67775e-07 -3.76635e-07 -2.92823e-07 -1.89482e-07 -5.99232e-08 0.0634627 0.0264985 0.00830792 0.00235257 0.000583041 0.000128561 2.64377e-05 4.6153e-06 4.80921e-07 -1.71938e-07 -2.25888e-07 -1.94785e-07 -1.57132e-07 -1.21732e-07 -8.01015e-08 -2.88266e-08 -0.0634628 -0.0264986 -0.008308 -0.00235265 -0.000583106 -0.00012862 -2.64913e-05 -4.66347e-06 -5.24009e-07 1.33561e-07 1.92848e-07 1.67438e-07 1.35667e-07 1.05974e-07 6.86759e-08 2.00364e-08 -0.175562 -0.0675747 -0.0192863 -0.00521585 -0.00124088 -0.000262002 -5.21009e-05 -8.56993e-06 -6.94479e-07 4.57126e-07 5.15635e-07 4.36172e-07 3.51635e-07 2.74279e-07 1.76164e-07 5.00043e-08 -0.22558 -0.0735116 -0.0169437 -0.0041283 -0.000893869 -0.000168983 -3.08301e-05 -4.05236e-06 1.4704e-07 5.90345e-07 5.30009e-07 4.35142e-07 3.4932e-07 2.73521e-07 1.70181e-07 3.50657e-08 -0.114678 -0.0317125 -0.00566356 -0.00122105 -0.000230074 -3.50319e-05 -5.27999e-06 -1.70003e-07 3.15693e-07 2.73147e-07 2.14892e-07 1.73216e-07 1.38732e-07 1.09177e-07 6.52681e-08 6.57164e-09 0.105403 0.0290544 0.00487382 0.00101411 0.000185762 2.76492e-05 4.09895e-06 8.02445e-08 -2.77238e-07 -2.39777e-07 -1.91304e-07 -1.55225e-07 -1.24364e-07 -9.76028e-08 -5.78699e-08 -6.72291e-09 0.204217 0.0653535 0.0140093 0.00327362 0.000682275 0.000124451 2.20683e-05 2.62842e-06 -2.6023e-07 -5.28168e-07 -4.62885e-07 -3.79972e-07 -3.04765e-07 -2.38022e-07 -1.46687e-07 -3.08922e-08 0.155065 0.0582271 0.0155329 0.00402128 0.000918428 0.000186947 3.60721e-05 5.56692e-06 2.7843e-07 -4.4107e-07 -4.4949e-07 -3.76096e-07 -3.02247e-07 -2.34914e-07 -1.4978e-07 -4.34171e-08 0.0551873 0.0224415 0.00661342 0.00179236 0.000426227 9.06189e-05 1.80821e-05 2.99612e-06 2.47885e-07 -1.60939e-07 -1.83897e-07 -1.56041e-07 -1.25481e-07 -9.71053e-08 -6.30738e-08 -2.12699e-08 -0.0551874 -0.0224416 -0.00661348 -0.00179242 -0.000426277 -9.06649e-05 -1.81242e-05 -3.03397e-06 -2.81778e-07 1.3075e-07 1.57991e-07 1.34658e-07 1.08761e-07 8.49194e-08 5.43407e-08 1.47447e-08 -0.155065 -0.0582271 -0.0155329 -0.00402134 -0.000918488 -0.000187002 -3.61229e-05 -5.61313e-06 -3.20116e-07 4.0403e-07 4.17677e-07 3.49677e-07 2.81373e-07 2.19479e-07 1.38821e-07 3.54539e-08 -0.204217 -0.0653536 -0.0140093 -0.0032737 -0.000682347 -0.000124518 -2.21309e-05 -2.68605e-06 2.08039e-07 4.82018e-07 4.23047e-07 3.46642e-07 2.78141e-07 2.18071e-07 1.32672e-07 2.08794e-08 -0.105403 -0.0290545 -0.00487386 -0.00101415 -0.0001858 -2.76855e-05 -4.13282e-06 -1.11611e-07 2.4882e-07 2.14722e-07 1.69612e-07 1.37025e-07 1.09768e-07 8.66224e-08 5.01872e-08 1.22468e-09 0.0691495 0.0172885 0.00252409 0.000519469 9.25322e-05 1.33677e-05 1.99211e-06 1.30008e-08 -1.4006e-07 -1.18855e-07 -9.43463e-08 -7.64091e-08 -6.11347e-08 -4.82405e-08 -2.71192e-08 9.95571e-10 0.12956 0.0368598 0.00685583 0.00155757 0.000310758 5.40434e-05 9.32503e-06 9.32287e-07 -1.95146e-07 -2.73387e-07 -2.31766e-07 -1.89114e-07 -1.5137e-07 -1.18523e-07 -7.04603e-08 -8.02574e-09 0.0927668 0.0309055 0.00732219 0.00182345 0.000396586 7.69632e-05 1.43445e-05 1.98189e-06 -1.0115e-08 -2.45117e-07 -2.27941e-07 -1.88037e-07 -1.50594e-07 -1.17056e-07 -7.29925e-08 -1.70109e-08 0.031905 0.0115113 0.00305914 0.000794495 0.000179707 3.64563e-05 7.01431e-06 1.05779e-06 4.09783e-08 -9.33815e-08 -9.26548e-08 -7.70067e-08 -6.16289e-08 -4.76366e-08 -3.03723e-08 -8.77764e-09 -0.031905 -0.0115113 -0.00305917 -0.000794519 -0.000179728 -3.64758e-05 -7.03217e-06 -1.0738e-06 -5.5308e-08 8.06372e-08 8.17817e-08 6.80916e-08 5.47328e-08 4.27104e-08 2.69144e-08 6.27223e-09 -0.0927668 -0.0309056 -0.00732223 -0.00182348 -0.000396615 -7.69902e-05 -1.43695e-05 -2.00463e-06 -1.03967e-08 2.26918e-07 2.12329e-07 1.75094e-07 1.40399e-07 1.09572e-07 6.77719e-08 1.33297e-08 -0.12956 -0.0368598 -0.00685587 -0.00155762 -0.0003108 -5.40828e-05 -9.36176e-06 -9.6612e-07 1.64508e-07 2.46274e-07 2.0834e-07 1.69505e-07 1.35701e-07 1.06792e-07 6.22869e-08 2.27624e-09 -0.0691495 -0.0172885 -0.00252412 -0.000519495 -9.25567e-05 -1.33908e-05 -2.01368e-06 -3.29396e-08 1.21992e-07 1.02883e-07 8.05078e-08 6.47901e-08 5.18101e-08 4.12209e-08 2.22214e-08 -4.46781e-09 w 1 1024 float